si_alpha_1000atoms.lmpdata (written by ASE) 

1000 	 atoms 
1  atom types
0.0      27.154716911303105  xlo xhi
0.0      27.154716911303105  ylo yhi
0.0      27.154716911303105  zlo zhi


Atoms 

1 1 1.42098 4.1193 1.45245 
2 1 0.229514 0.151977 2.67431 
3 1 1.36274 1.47767 4.29384 
4 1 0.164456 3.18319 -0.0684048 
5 1 4.15364 4.48501 3.9926 
6 1 2.78214 0.261569 0.0594455 
7 1 4.15177 1.2858 1.49272 
8 1 2.78873 2.81141 2.85418 
9 1 6.78646 4.16811 1.25672 
10 1 5.56756 -0.0541755 2.40835 
11 1 6.66138 1.32696 3.93177 
12 1 5.30682 2.84842 -0.0963361 
13 1 9.4875 3.96721 4.14423 
14 1 8.35353 0.179616 -0.0653604 
15 1 9.46037 1.42527 1.67116 
16 1 8.06249 2.72718 2.78705 
17 1 12.1992 3.99511 1.50618 
18 1 10.7797 -0.315356 2.48682 
19 1 11.9896 1.27147 3.77826 
20 1 10.5844 2.58332 -0.0713147 
21 1 15.0357 4.12218 4.2782 
22 1 13.2768 -0.0738755 0.0573835 
23 1 14.7216 1.38033 1.29794 
24 1 13.6147 2.62545 2.78436 
25 1 17.8458 4.00644 1.43059 
26 1 16.2102 -0.0465225 2.89693 
27 1 17.4101 1.47128 4.34181 
28 1 16.2617 2.68688 -0.0319057 
29 1 20.3133 3.97868 4.32307 
30 1 18.8677 0.0183746 -0.0176655 
31 1 20.2806 1.38936 1.26312 
32 1 19.0601 2.61536 2.9011 
33 1 23.0772 4.26509 1.50464 
34 1 21.7147 0.00879017 2.4845 
35 1 23.0815 1.34031 4.02676 
36 1 21.7408 2.86212 -0.0637954 
37 1 25.6207 4.01001 3.98316 
38 1 24.1367 0.0514672 0.111238 
39 1 25.9248 1.32087 1.16519 
40 1 24.4335 2.66196 2.42748 
41 1 1.25584 9.55842 1.39847 
42 1 -0.120215 5.50809 2.66524 
43 1 1.10465 7.00366 4.03288 
44 1 0.00710747 8.3027 0.0367343 
45 1 4.01284 9.43247 4.07475 
46 1 2.82335 5.35563 0.0851353 
47 1 4.18277 6.79968 1.3897 
48 1 2.69069 8.22405 2.75822 
49 1 6.91242 9.56871 1.53752 
50 1 5.58055 5.60622 2.65088 
51 1 6.82174 7.12771 3.89127 
52 1 5.45886 8.41161 0.067215 
53 1 9.44128 9.5444 3.85292 
54 1 8.19906 5.5879 -0.175782 
55 1 9.59294 6.74348 1.28835 
56 1 8.33071 8.01124 2.60278 
57 1 12.1766 9.77494 1.27908 
58 1 10.7929 5.34798 2.81558 
59 1 12.0735 6.91816 4.07754 
60 1 10.9873 8.1862 0.0253098 
61 1 14.7488 9.50594 3.94352 
62 1 13.6379 5.17408 0.0698131 
63 1 14.8938 6.7013 1.38001 
64 1 13.4481 8.31566 2.43198 
65 1 17.4038 9.64315 1.39001 
66 1 16.3487 5.39094 2.66517 
67 1 17.4675 6.77088 4.05686 
68 1 16.4049 7.99528 -0.0688538 
69 1 20.2761 9.56239 3.99221 
70 1 19.0784 5.45659 0.0145431 
71 1 20.2374 6.86623 1.30682 
72 1 18.8083 8.28077 2.81709 
73 1 23.3443 9.81528 1.61306 
74 1 21.4983 5.39166 2.98974 
75 1 22.9774 6.84647 3.9138 
76 1 21.61 8.44068 0.165627 
77 1 25.6853 9.58983 4.25789 
78 1 24.1754 5.75561 -0.0548876 
79 1 25.7232 6.77956 1.40497 
80 1 24.4394 8.27862 2.67272 
81 1 1.55255 14.9254 1.34978 
82 1 -0.0470891 11.0401 2.91558 
83 1 1.5674 12.0848 4.1423 
84 1 0.112139 13.5845 -0.0904119 
85 1 4.28017 14.9017 4.14183 
86 1 2.73719 10.8861 0.0868246 
87 1 4.20505 12.1468 1.21111 
88 1 2.93008 13.504 2.64705 
89 1 6.6868 15.0233 1.20674 
90 1 5.47745 10.9437 2.83463 
91 1 6.78323 12.4983 3.95252 
92 1 5.49245 13.5873 -0.135337 
93 1 9.35032 14.8872 4.19447 
94 1 8.22903 10.9138 -0.054237 
95 1 9.62547 12.1742 1.28781 
96 1 8.24016 13.6903 2.56332 
97 1 12.244 14.8786 1.35924 
98 1 10.7995 10.8966 2.75398 
99 1 12.2379 12.1488 4.33981 
100 1 10.9752 13.5745 -0.0623675 
101 1 14.9268 14.8062 4.29376 
102 1 13.4673 10.9307 -0.245952 
103 1 14.7693 12.2317 1.31068 
104 1 13.4758 13.4671 2.9009 
105 1 17.5804 14.8134 1.34957 
106 1 16.142 11.0177 2.67828 
107 1 17.6053 12.244 3.97383 
108 1 15.9306 13.6174 -0.0368368 
109 1 20.4619 15.026 3.90314 
110 1 18.6961 11.0181 0.0960457 
111 1 20.2708 12.0951 1.26545 
112 1 19.2527 13.6137 2.66956 
113 1 22.7547 14.9254 1.25171 
114 1 21.5748 10.9766 2.95735 
115 1 23.0985 12.2404 4.06339 
116 1 21.6594 13.4677 -0.0197281 
117 1 25.8183 14.9502 4.06356 
118 1 24.5981 11.0335 -0.25406 
119 1 25.5515 12.3554 1.49696 
120 1 24.0309 13.8356 2.67007 
121 1 1.46499 20.5742 1.45084 
122 1 0.177404 16.3918 2.68624 
123 1 1.41816 17.7967 4.17272 
124 1 0.0523006 19.1464 -0.0128792 
125 1 3.98573 20.2996 3.97669 
126 1 2.69048 16.4696 0.238796 
127 1 4.28328 17.6066 1.27515 
128 1 2.87977 18.9211 2.65947 
129 1 6.88321 20.5847 1.25764 
130 1 5.37672 16.2057 2.88847 
131 1 6.73479 17.7488 4.13162 
132 1 5.71388 19.1609 0.0012151 
133 1 9.42798 20.1938 3.85577 
134 1 8.09831 16.0814 -0.290037 
135 1 9.28141 17.3673 1.2051 
136 1 7.9639 18.9665 2.45886 
137 1 12.5375 20.0247 1.44458 
138 1 10.7763 16.2953 2.72193 
139 1 12.1814 17.4856 4.33781 
140 1 10.858 18.9259 0.04731 
141 1 15.0378 20.0689 4.22466 
142 1 13.3868 16.4016 -0.117778 
143 1 14.9239 17.337 1.45607 
144 1 13.6685 18.4527 3.01746 
145 1 17.3463 20.5091 1.2912 
146 1 16.2524 16.1953 3.06128 
147 1 17.5843 17.7047 4.44771 
148 1 16.401 18.7927 0.118441 
149 1 20.3254 20.5376 4.12347 
150 1 19.0014 16.2136 0.0470729 
151 1 19.9631 17.9009 1.38264 
152 1 18.6046 19.0767 2.77721 
153 1 23.1794 20.2564 1.35225 
154 1 21.58 16.4523 2.52685 
155 1 22.875 17.6573 4.09608 
156 1 21.76 18.8807 0.0569389 
157 1 25.8882 20.2558 3.99817 
158 1 24.4765 16.0811 -0.126697 
159 1 25.8516 17.5484 1.1444 
160 1 24.5014 18.9832 2.73055 
161 1 1.60427 26.0344 1.63128 
162 1 0.122532 21.8293 2.94361 
163 1 1.50595 23.252 4.40055 
164 1 -0.0661055 24.6368 0.278675 
165 1 4.18546 26.0871 4.07444 
166 1 2.7128 21.9578 -0.100797 
167 1 4.15585 23.3225 1.20306 
168 1 2.75015 24.5766 2.8914 
169 1 7.00715 25.8743 1.2124 
170 1 5.22495 21.9137 2.74549 
171 1 6.86874 23.0843 4.2139 
172 1 5.5851 24.7893 -0.0378319 
173 1 9.3094 25.7032 4.17636 
174 1 8.45743 21.9962 0.0603625 
175 1 10.0595 23.2763 1.37337 
176 1 8.19522 24.3379 2.60509 
177 1 12.1633 25.5575 1.21366 
178 1 10.907 21.5469 2.47924 
179 1 12.1623 22.683 4.01538 
180 1 11.1791 24.7455 -0.3576 
181 1 14.9377 25.3575 4.25317 
182 1 13.5464 21.5873 0.0618631 
183 1 14.9471 22.827 1.39778 
184 1 13.5436 24.2479 2.68004 
185 1 17.6006 26.0432 1.42218 
186 1 16.2615 21.7893 2.90624 
187 1 17.3869 23.5468 3.89039 
188 1 16.2697 24.3692 0.132765 
189 1 20.3948 25.9784 3.89913 
190 1 18.8926 21.6408 -0.0164732 
191 1 20.2139 22.971 1.37259 
192 1 18.8798 24.4637 2.63466 
193 1 23.0397 25.6941 1.49178 
194 1 21.6506 21.5141 2.54501 
195 1 22.9782 22.9045 3.95079 
196 1 21.4571 24.5022 0.261258 
197 1 25.8441 26.0196 4.07666 
198 1 24.5508 21.8197 0.301314 
199 1 25.7486 23.2524 1.62646 
200 1 24.2857 24.6822 2.98684 
201 1 1.14346 3.93387 6.74305 
202 1 -0.117035 0.216757 8.23045 
203 1 1.40346 1.40366 9.61886 
204 1 -0.183633 2.71837 5.34527 
205 1 4.0593 3.97591 9.56825 
206 1 2.87384 0.21975 5.54126 
207 1 4.31558 1.34072 6.72321 
208 1 2.74188 2.8586 8.10074 
209 1 7.04743 4.18014 6.82876 
210 1 5.62817 0.0491636 8.40227 
211 1 6.92272 1.543 9.76214 
212 1 5.67265 3.03183 5.16614 
213 1 9.69197 4.03095 9.43582 
214 1 7.91839 0.0847151 5.60186 
215 1 9.62067 1.16653 6.80166 
216 1 8.53274 2.63461 8.20553 
217 1 12.3684 4.17306 6.71781 
218 1 10.7822 -0.130295 8.30316 
219 1 12.1736 1.18173 9.79675 
220 1 11.0706 2.64353 5.46301 
221 1 14.9507 3.88787 9.50543 
222 1 13.3749 0.0302193 5.42414 
223 1 14.5807 1.33973 6.82799 
224 1 13.2688 2.52925 8.3249 
225 1 17.5613 4.40359 6.85801 
226 1 16.1499 -0.0747132 8.21978 
227 1 17.6913 1.48215 9.38825 
228 1 16.1416 2.81624 5.87046 
229 1 20.1924 4.1283 9.48599 
230 1 18.9876 0.0178473 5.44977 
231 1 20.1452 1.78781 6.68756 
232 1 18.9344 2.99676 8.07429 
233 1 23.0917 4.32642 6.93913 
234 1 21.4944 -0.0293762 8.16704 
235 1 22.8169 1.36496 9.53458 
236 1 22.0329 2.69172 5.49464 
237 1 25.5458 3.97319 9.54907 
238 1 24.2513 -0.00509373 5.53047 
239 1 25.6673 1.41006 6.61954 
240 1 24.155 2.58653 8.11942 
241 1 1.70603 9.46169 6.97383 
242 1 -0.180169 5.20513 8.31845 
243 1 1.30891 6.84251 9.18191 
244 1 0.0754777 8.37556 5.60232 
245 1 4.13834 9.50284 9.84974 
246 1 2.42484 5.32475 5.31406 
247 1 3.70736 6.67547 6.79207 
248 1 2.89702 8.25641 8.4471 
249 1 6.74126 9.37063 6.62301 
250 1 5.51154 5.43188 8.10356 
251 1 6.85496 6.57079 9.59677 
252 1 5.18674 8.02863 5.45305 
253 1 9.28269 9.1628 9.46844 
254 1 8.25616 5.53062 5.48155 
255 1 9.57926 7.00674 6.76154 
256 1 7.979 7.88203 8.05881 
257 1 12.16 9.56849 6.81001 
258 1 10.8849 5.60244 8.05961 
259 1 12.0471 6.89403 9.60335 
260 1 10.6867 8.41767 5.43734 
261 1 14.9547 9.39195 9.6108 
262 1 13.6131 5.67722 5.43872 
263 1 14.9209 6.91899 6.88221 
264 1 13.6664 8.07813 8.29817 
265 1 17.7079 9.53438 6.70135 
266 1 16.2363 5.57101 8.1698 
267 1 17.6885 6.95902 9.41219 
268 1 16.1752 8.17579 5.34756 
269 1 20.4087 9.64315 9.55752 
270 1 19.0137 5.57472 5.51195 
271 1 20.2316 7.20748 6.74653 
272 1 19.0894 8.4004 8.10036 
273 1 22.9401 9.54118 6.80361 
274 1 21.4583 5.53966 7.98301 
275 1 22.7492 6.57337 9.51339 
276 1 21.7505 8.33113 5.35812 
277 1 25.835 9.25529 9.47552 
278 1 24.3521 5.45187 5.24967 
279 1 25.6934 6.58125 6.67027 
280 1 24.3341 7.93626 8.21918 
281 1 1.42205 14.9292 6.92864 
282 1 0.134462 10.6408 8.09484 
283 1 1.24645 12.1459 9.61072 
284 1 0.0905884 13.5605 5.4978 
285 1 4.08448 14.7436 9.41744 
286 1 2.83533 10.7706 5.54368 
287 1 4.12346 12.0487 6.81928 
288 1 2.64818 13.3184 8.17066 
289 1 6.67651 14.9412 6.73666 
290 1 5.48212 10.6059 8.12246 
291 1 6.7056 12.2872 9.56317 
292 1 5.38014 13.6569 5.6179 
293 1 9.65307 14.8209 9.68385 
294 1 7.85859 10.5901 5.11998 
295 1 9.12036 12.046 6.76048 
296 1 8.01993 13.6103 8.15181 
297 1 12.3323 14.8179 6.88975 
298 1 10.6061 10.6452 8.33723 
299 1 12.0843 12.0424 9.55017 
300 1 10.6879 13.6973 5.74408 
301 1 15.1426 14.738 9.58144 
302 1 13.5606 10.7409 5.64035 
303 1 14.9227 12.0489 7.07289 
304 1 13.587 13.4247 8.37673 
305 1 17.8337 14.9706 6.71231 
306 1 16.3695 10.9456 8.37742 
307 1 17.803 12.4029 9.79714 
308 1 16.3573 13.459 5.63769 
309 1 20.5258 15.2314 9.50304 
310 1 19.1025 10.7952 5.4112 
311 1 20.3524 12.5566 6.74825 
312 1 19.0224 13.7273 8.27786 
313 1 22.9804 15.2981 6.98897 
314 1 21.7474 10.9403 7.96426 
315 1 22.9598 12.3716 9.34824 
316 1 21.6586 13.7745 5.51934 
317 1 25.7364 14.8992 9.28476 
318 1 24.2641 10.7995 5.53055 
319 1 25.9645 12.0808 6.69163 
320 1 24.512 13.5693 7.87374 
321 1 1.33107 20.3574 6.71855 
322 1 0.102726 16.2873 8.05609 
323 1 1.28047 17.6393 9.61307 
324 1 -0.126637 19.075 5.42529 
325 1 4.07969 20.243 9.4509 
326 1 2.67011 16.1803 5.28225 
327 1 3.85667 17.4627 6.83191 
328 1 2.64994 18.9854 8.1983 
329 1 6.49234 20.5218 6.73505 
330 1 5.33071 16.1353 8.11395 
331 1 6.65834 17.3536 9.51979 
332 1 5.16822 18.9131 5.54158 
333 1 9.61078 20.1143 9.08151 
334 1 8.15937 16.3161 5.58793 
335 1 9.43994 17.7749 6.84609 
336 1 7.91963 19.0283 8.20941 
337 1 12.6089 19.9474 6.75791 
338 1 11.0574 16.3909 8.07039 
339 1 12.4927 17.587 9.79941 
340 1 10.7708 18.9111 5.53017 
341 1 14.8489 20.4695 9.60018 
342 1 13.5654 16.1844 5.80167 
343 1 14.977 17.4651 7.00846 
344 1 13.8912 18.8863 8.38093 
345 1 17.533 20.8049 6.49954 
346 1 16.338 15.9744 8.16442 
347 1 17.7159 17.5562 9.59569 
348 1 16.2517 19.024 5.87899 
349 1 20.232 20.3929 9.02223 
350 1 19.0416 16.1877 5.37821 
351 1 20.3402 17.8197 6.66599 
352 1 18.8166 18.9781 8.11565 
353 1 23.2545 20.6547 6.62553 
354 1 21.6853 16.6493 8.25566 
355 1 23.1363 18.0056 9.28787 
356 1 21.6594 19.231 5.75516 
357 1 25.7527 20.2313 9.38228 
358 1 24.254 16.2183 5.11042 
359 1 25.681 17.5292 6.42518 
360 1 24.5176 19.1081 7.83412 
361 1 1.28027 26.2964 6.78082 
362 1 0.0429861 21.4255 7.99779 
363 1 1.14094 22.7142 9.5379 
364 1 0.101718 24.6071 5.43889 
365 1 3.97247 26.0293 9.58026 
366 1 2.70725 21.6819 5.40142 
367 1 4.14921 23.1877 6.77425 
368 1 2.56154 24.5167 8.11275 
369 1 6.77702 25.5775 6.89297 
370 1 5.39552 21.7554 8.23732 
371 1 6.72491 23.0046 9.41308 
372 1 5.33739 24.5754 5.46432 
373 1 9.22767 25.45 9.51243 
374 1 8.10676 21.5567 5.46013 
375 1 9.69578 22.7381 6.88679 
376 1 8.02999 24.04 7.99919 
377 1 12.0707 25.8006 6.86599 
378 1 11.2086 21.3767 8.01745 
379 1 12.0897 23.1105 9.40019 
380 1 10.8696 24.3539 5.43641 
381 1 14.9756 25.7494 9.64398 
382 1 13.634 21.455 5.3183 
383 1 14.921 22.8551 6.92294 
384 1 13.4248 24.2953 8.19488 
385 1 17.6998 25.7916 6.8212 
386 1 16.2957 21.6919 8.30527 
387 1 17.7384 23.1875 9.31014 
388 1 16.2428 24.4096 5.84088 
389 1 20.2081 25.7592 9.39195 
390 1 18.7135 22.012 5.18923 
391 1 20.3293 23.1034 6.52315 
392 1 19.2245 24.2746 8.0553 
393 1 22.7421 25.6243 6.60818 
394 1 21.6239 21.7002 7.85279 
395 1 22.9174 23.0571 9.27514 
396 1 21.6142 24.2301 5.09378 
397 1 25.8786 25.82 9.51515 
398 1 24.6271 21.9799 5.32087 
399 1 26.0776 23.1072 6.85064 
400 1 24.3679 24.5568 8.16679 
401 1 1.21875 4.13304 12.3078 
402 1 0.141269 0.0137462 13.5022 
403 1 1.33217 1.27502 15.0861 
404 1 -0.0468196 2.6129 10.9257 
405 1 4.23578 4.31683 14.8648 
406 1 2.8081 0.349819 10.9668 
407 1 4.14165 1.85458 12.18 
408 1 2.64725 2.85119 13.6948 
409 1 7.28442 4.13123 12.2344 
410 1 5.3278 0.266567 13.4877 
411 1 6.68491 1.32365 14.9387 
412 1 5.57029 3.07051 10.8675 
413 1 9.71663 3.72622 15.0397 
414 1 8.06299 -0.0224856 10.9298 
415 1 9.68986 1.09379 12.0296 
416 1 8.30663 2.53941 13.5995 
417 1 12.1462 4.16241 12.6101 
418 1 10.7506 -0.183538 13.7365 
419 1 12.3794 1.02533 14.907 
420 1 11.0186 2.77597 11.1961 
421 1 14.8105 4.31738 15.0558 
422 1 13.7446 -0.165716 11.0307 
423 1 15.0554 1.46693 12.211 
424 1 13.5128 2.48905 13.8005 
425 1 17.5935 4.31886 12.1372 
426 1 16.4937 -0.0161597 13.4411 
427 1 17.7688 1.36859 14.9374 
428 1 16.5463 2.85948 10.8804 
429 1 20.3205 3.80393 14.7739 
430 1 18.8947 -0.150455 10.732 
431 1 20.2886 1.20683 12.1042 
432 1 18.8446 2.70746 13.3453 
433 1 23.1756 3.9528 12.3824 
434 1 21.9415 0.0952422 13.5188 
435 1 23.105 1.52308 14.9099 
436 1 21.6561 2.82011 10.9865 
437 1 25.7648 4.30895 14.9777 
438 1 24.2696 0.0806744 10.7763 
439 1 25.9478 1.29437 12.1796 
440 1 24.6995 2.70048 13.4811 
441 1 1.40063 9.41034 12.3455 
442 1 0.222567 5.62751 13.6712 
443 1 1.5659 6.78602 15.1085 
444 1 0.0230749 7.94275 10.8681 
445 1 4.04895 9.33006 14.9985 
446 1 2.38586 5.45221 10.6227 
447 1 4.00806 6.35922 11.9899 
448 1 2.93652 7.93762 13.7627 
449 1 6.84437 9.48974 12.0312 
450 1 5.81737 5.47206 13.455 
451 1 7.10236 6.62761 14.9829 
452 1 5.38844 7.82607 10.7227 
453 1 9.30154 9.46793 15.2 
454 1 8.49648 5.67733 10.8439 
455 1 9.62157 6.91153 12.3555 
456 1 8.14726 8.21253 13.7248 
457 1 12.1022 9.59237 12.4545 
458 1 11.0338 5.44354 14.0124 
459 1 12.2761 6.83946 15.1819 
460 1 10.8696 8.29394 10.9757 
461 1 14.8674 9.58282 14.9839 
462 1 13.6174 5.36804 10.9727 
463 1 14.8761 6.89698 12.1617 
464 1 13.5113 8.22621 13.6955 
465 1 17.8071 9.53388 12.3538 
466 1 16.4115 5.55573 13.7071 
467 1 17.7415 6.70621 14.9486 
468 1 16.4399 8.19133 10.8107 
469 1 20.4408 9.437 15.1052 
470 1 18.8528 5.6369 10.8188 
471 1 20.4589 6.85062 12.1833 
472 1 19.2555 8.22185 13.626 
473 1 23.1577 9.57486 12.3476 
474 1 21.7824 5.28095 13.4293 
475 1 23.1056 6.872 14.6555 
476 1 21.8645 8.38683 10.956 
477 1 25.5914 9.48984 14.8558 
478 1 24.3275 5.45912 10.8864 
479 1 25.6538 6.76312 12.1789 
480 1 24.5276 8.20592 13.4628 
481 1 1.06706 15.0647 12.172 
482 1 0.194463 10.693 13.5998 
483 1 1.48914 12.0646 14.8046 
484 1 -0.252615 13.7836 10.7776 
485 1 4.23587 14.7747 14.956 
486 1 2.78322 10.9854 11.0971 
487 1 4.11301 12.2954 12.4108 
488 1 2.60364 13.62 13.4623 
489 1 6.8057 14.8472 12.2506 
490 1 5.40717 10.5733 13.6073 
491 1 6.85784 11.825 14.9254 
492 1 5.35676 13.4285 10.953 
493 1 9.30166 15.0426 15.0691 
494 1 8.11645 10.8606 10.9772 
495 1 9.58081 12.3484 12.2905 
496 1 8.18899 13.4456 13.7815 
497 1 12.3386 14.85 12.2907 
498 1 10.5514 10.674 13.881 
499 1 12.2218 12.3845 15.0365 
500 1 11.1155 13.5666 10.7151 
501 1 15.0725 14.6534 14.8521 
502 1 13.4855 10.7544 10.9317 
503 1 14.9026 12.062 12.3797 
504 1 13.5856 13.5967 13.564 
505 1 18.0622 15.0264 12.0456 
506 1 16.4282 10.8847 13.7569 
507 1 17.5053 12.4427 14.9234 
508 1 16.4869 13.5673 11.2719 
509 1 20.6022 14.9672 14.9706 
510 1 18.908 10.8579 11.0326 
511 1 20.1949 12.2447 12.3671 
512 1 19.0717 13.7624 13.591 
513 1 23.159 14.8618 12.2993 
514 1 21.7806 10.9339 13.9399 
515 1 22.9134 12.4009 15.2169 
516 1 21.6952 13.5289 10.9583 
517 1 25.9299 14.9468 14.9603 
518 1 24.3818 10.9533 10.6682 
519 1 25.8823 11.8512 12.145 
520 1 24.5763 13.4806 13.6464 
521 1 1.34814 20.7014 11.9624 
522 1 -0.0517377 16.3301 13.6229 
523 1 1.51749 17.6141 14.771 
524 1 0.0317954 18.8865 11.0254 
525 1 3.6591 20.0668 14.8238 
526 1 2.64868 16.1215 10.7341 
527 1 4.22209 17.2758 12.2328 
528 1 2.65984 18.9496 13.0994 
529 1 6.68675 20.0431 12.0175 
530 1 5.57588 16.0404 13.7216 
531 1 6.67093 17.622 14.9883 
532 1 5.26424 18.6792 10.7253 
533 1 9.34685 20.0976 14.9705 
534 1 8.27161 16.1727 11.045 
535 1 9.56008 17.582 12.3992 
536 1 8.04028 18.7783 13.6576 
537 1 12.1383 20.0125 12.1003 
538 1 10.9316 16.287 13.5801 
539 1 12.2549 17.3845 15.0198 
540 1 10.6728 18.917 10.7781 
541 1 15.0643 20.3302 14.6318 
542 1 13.773 16.124 10.7589 
543 1 15.1389 17.4331 12.391 
544 1 13.6609 18.7678 13.6054 
545 1 18.0546 20.5866 12.0458 
546 1 16.5743 16.2003 13.5743 
547 1 17.8339 17.6951 14.9101 
548 1 16.3047 19.0171 10.9623 
549 1 20.5107 20.4784 14.9004 
550 1 19.35 16.462 10.7186 
551 1 20.4832 17.9884 12.211 
552 1 19.1425 19.0444 13.7522 
553 1 22.9708 20.5412 12.3148 
554 1 21.9911 16.3666 13.5051 
555 1 23.1783 17.6399 14.7392 
556 1 21.7341 19.5435 10.6331 
557 1 26.0006 20.2876 14.8693 
558 1 24.3295 16.3652 10.5574 
559 1 25.7455 17.5761 12.2679 
560 1 24.5098 19.1035 13.3155 
561 1 1.48565 25.9469 12.0607 
562 1 0.113572 21.8102 13.5334 
563 1 1.42795 23.222 14.6306 
564 1 -0.0110115 24.2745 10.7769 
565 1 4.13281 25.9691 14.8335 
566 1 2.85774 21.915 10.6827 
567 1 4.15122 23.0558 12.1653 
568 1 2.94915 24.4625 13.509 
569 1 6.73728 25.8504 12.4189 
570 1 5.38395 21.34 13.4753 
571 1 6.63025 23.0549 14.8389 
572 1 5.47369 24.5178 10.7821 
573 1 9.36625 25.6245 14.8535 
574 1 8.14375 21.4897 10.5613 
575 1 9.31933 22.7541 12.204 
576 1 8.04733 24.2986 13.3812 
577 1 12.0891 25.5181 12.2842 
578 1 10.8648 21.5068 13.4395 
579 1 12.3471 22.9855 14.8541 
580 1 10.5859 24.119 10.8614 
581 1 15.2157 25.8191 15.1091 
582 1 13.4252 21.632 10.9592 
583 1 14.8807 22.9757 12.2107 
584 1 13.7864 24.4561 13.6862 
585 1 17.7976 25.7714 12.1928 
586 1 16.4147 21.7075 13.4877 
587 1 17.8014 23.1579 14.8068 
588 1 16.4261 24.4907 10.882 
589 1 20.6488 26.1496 14.9729 
590 1 19.2321 22.0621 10.4173 
591 1 20.5283 23.2335 11.9267 
592 1 19.2867 24.657 13.4467 
593 1 23.2509 25.7377 12.2874 
594 1 21.5245 21.7973 13.3926 
595 1 23.1683 22.9096 14.8384 
596 1 21.791 24.6117 10.7932 
597 1 25.8594 25.838 15.1304 
598 1 24.5137 21.7295 10.7529 
599 1 25.9401 23.1223 12.2617 
600 1 24.465 24.5238 13.7012 
601 1 1.32062 3.99284 17.7854 
602 1 -0.0222155 0.0736204 19.1615 
603 1 1.34494 1.27002 20.708 
604 1 -0.0624909 2.6718 16.2901 
605 1 3.98578 4.01083 20.2784 
606 1 2.74684 0.00875325 16.3018 
607 1 4.12358 1.30275 17.7767 
608 1 2.5894 2.38457 19.2878 
609 1 6.91509 3.87476 17.6477 
610 1 5.44869 -0.0958021 19.1098 
611 1 6.76152 1.21765 20.4509 
612 1 5.30177 2.66181 16.4477 
613 1 9.39348 4.10191 20.5499 
614 1 8.06342 -0.0829102 16.2574 
615 1 9.40809 1.19473 17.4454 
616 1 8.1011 2.57141 18.9769 
617 1 12.3374 3.93698 17.3792 
618 1 10.902 -0.213489 18.5747 
619 1 12.1775 1.2578 20.1427 
620 1 11.0767 2.29009 16.3665 
621 1 14.9597 3.84623 20.2135 
622 1 13.7606 -0.115211 16.3741 
623 1 15.1979 1.24384 17.6589 
624 1 13.5258 2.52859 18.7891 
625 1 17.7889 3.91625 17.6924 
626 1 16.4361 -0.393013 19.0195 
627 1 17.4766 1.51998 20.1857 
628 1 16.31 2.82655 16.3662 
629 1 20.1979 4.17032 20.4086 
630 1 19.0255 0.0774812 16.1196 
631 1 20.2107 1.33414 17.6632 
632 1 19.0986 2.78346 19.263 
633 1 23.1111 4.08971 17.5832 
634 1 21.563 0.385221 19.0532 
635 1 23.2532 1.67265 20.2789 
636 1 21.6637 2.65775 16.3757 
637 1 25.8537 3.98323 20.5979 
638 1 24.366 0.0425973 16.4645 
639 1 25.7383 1.38283 17.6361 
640 1 24.6939 2.8364 18.9259 
641 1 1.00104 9.29096 17.6177 
642 1 0.0190234 5.2899 19.1917 
643 1 1.25849 6.98716 20.2443 
644 1 -0.194324 8.00168 16.1631 
645 1 4.09758 9.47912 20.6147 
646 1 2.84541 5.51092 16.6494 
647 1 4.41612 6.61861 17.6294 
648 1 2.6941 7.90293 18.9292 
649 1 6.58088 9.40107 18.0519 
650 1 5.50674 5.30757 19.0836 
651 1 6.71155 6.52398 20.5096 
652 1 5.54573 8.09518 16.3619 
653 1 9.49451 9.40725 20.3634 
654 1 8.26366 5.13272 16.4378 
655 1 9.47003 6.63698 17.6987 
656 1 7.99873 7.95685 19.0832 
657 1 12.1645 9.25568 17.4673 
658 1 11.0189 5.23763 18.9461 
659 1 12.1994 6.75044 20.471 
660 1 10.5739 8.00499 16.3074 
661 1 14.9004 9.71722 20.3392 
662 1 13.8188 5.64456 16.6688 
663 1 15.3281 6.9854 17.7461 
664 1 13.5106 8.25329 19.0364 
665 1 17.5921 9.56169 17.8172 
666 1 16.3667 5.16223 18.9344 
667 1 17.5973 6.78266 20.1253 
668 1 16.5229 8.22266 16.2678 
669 1 20.1402 9.30726 20.4084 
670 1 19.0478 5.21359 16.0812 
671 1 20.6499 6.38732 17.3547 
672 1 19.2042 8.00807 18.7227 
673 1 22.9631 9.30553 17.8028 
674 1 21.7036 5.3879 19.0294 
675 1 23.3115 6.77635 20.526 
676 1 21.6872 7.94936 16.2447 
677 1 25.5943 9.53229 20.4543 
678 1 24.2518 5.49331 16.0921 
679 1 25.6505 6.61584 17.7742 
680 1 24.4172 7.96732 19.1171 
681 1 1.44333 14.6623 17.4752 
682 1 -0.222816 10.7246 19.0662 
683 1 1.33757 11.9666 20.46 
684 1 -0.11673 13.3044 16.2025 
685 1 3.84577 14.8326 20.1029 
686 1 2.61717 10.6202 16.378 
687 1 3.68462 12.2331 17.5072 
688 1 2.63007 13.2813 19.1674 
689 1 6.56993 14.7738 17.5021 
690 1 5.16097 11.0464 19.197 
691 1 6.59818 12.3281 20.338 
692 1 5.39655 13.2672 16.2359 
693 1 9.34175 14.7476 20.2497 
694 1 8.09038 10.7578 16.633 
695 1 9.62818 12.3987 17.6095 
696 1 7.94325 13.514 18.937 
697 1 11.8891 14.9375 17.639 
698 1 10.848 10.6593 18.9054 
699 1 12.571 11.9643 20.1547 
700 1 10.8407 13.6114 16.2471 
701 1 15.1435 15.3215 20.2673 
702 1 13.4012 10.821 16.2721 
703 1 14.6135 12.4257 17.584 
704 1 13.6373 14.0186 18.9404 
705 1 17.986 14.8809 18.0383 
706 1 16.1906 11.1336 18.8303 
707 1 17.6067 12.1739 20.6855 
708 1 16.465 13.8615 16.651 
709 1 20.5001 15.1203 20.45 
710 1 18.8366 10.9168 16.3617 
711 1 20.3331 12.0636 17.9212 
712 1 19.3008 13.4334 19.3455 
713 1 23.2685 15.2431 17.8517 
714 1 21.6791 10.758 19.1889 
715 1 23.0355 12.2514 20.2998 
716 1 21.6543 13.6593 16.7241 
717 1 25.9971 15.0931 20.4361 
718 1 24.2801 10.7343 16.2973 
719 1 25.6125 12.1136 17.6447 
720 1 24.5927 13.6555 19.0269 
721 1 1.38865 20.4215 17.4501 
722 1 0.184103 16.3951 19.3056 
723 1 1.46939 17.9407 20.5696 
724 1 0.142006 18.8982 16.2624 
725 1 4.05614 20.4678 20.2887 
726 1 2.83732 16.1147 16.2209 
727 1 4.01168 17.5711 17.6791 
728 1 2.73381 19.1818 18.952 
729 1 6.64241 20.1929 17.31 
730 1 5.2199 16.1178 18.925 
731 1 6.5377 17.6136 20.3632 
732 1 5.03557 18.7982 16.2004 
733 1 9.22753 20.3916 20.2078 
734 1 8.0835 16.3547 16.4185 
735 1 9.5928 17.7136 17.7716 
736 1 7.72744 19.0818 18.8263 
737 1 12.1738 20.4028 17.4527 
738 1 10.6331 16.0585 18.9401 
739 1 12.132 17.6889 20.0681 
740 1 10.811 18.9877 16.2135 
741 1 15.0291 20.3324 20.5002 
742 1 13.5897 16.056 16.2666 
743 1 15.0097 17.4621 17.504 
744 1 13.6272 19.1511 18.8254 
745 1 17.3519 20.2047 17.5292 
746 1 16.4641 16.4507 18.9503 
747 1 17.8158 17.8442 20.4585 
748 1 16.2323 18.8917 16.0791 
749 1 20.5424 20.3878 20.1677 
750 1 18.9959 16.2581 16.4879 
751 1 20.3957 17.6515 17.4092 
752 1 19.1198 18.843 18.903 
753 1 22.9802 20.2818 17.2851 
754 1 21.8127 16.5622 19.1595 
755 1 23.2516 17.8847 20.2955 
756 1 21.8016 19.0033 16.0797 
757 1 25.876 20.4699 20.2875 
758 1 24.5201 16.4155 16.2527 
759 1 25.9181 17.6276 17.756 
760 1 24.6158 19.0569 18.8741 
761 1 1.30702 25.8727 17.7482 
762 1 0.00105998 21.6294 18.7225 
763 1 1.30184 23.2481 20.2608 
764 1 0.0698245 24.4157 16.4125 
765 1 4.24548 25.8396 20.5207 
766 1 2.77784 21.8657 16.1234 
767 1 4.14747 23.0602 17.631 
768 1 2.86048 24.5007 19.2064 
769 1 6.58274 25.79 17.7072 
770 1 5.46552 21.5858 18.9514 
771 1 6.7958 23.1029 20.2092 
772 1 5.50316 24.4679 16.1686 
773 1 9.67703 25.7539 20.1087 
774 1 7.89814 21.7515 16.1811 
775 1 9.34785 23.0539 17.5474 
776 1 8.14851 24.427 18.9112 
777 1 12.124 25.5051 17.4302 
778 1 10.7884 21.6636 18.9115 
779 1 12.1144 23.1325 20.247 
780 1 10.6871 24.1634 16.0033 
781 1 14.8294 25.5228 20.2162 
782 1 13.7478 21.6418 16.1335 
783 1 15.1099 23.0149 17.4055 
784 1 13.4321 24.2108 18.812 
785 1 17.6271 25.7209 17.2673 
786 1 16.4268 21.871 18.9967 
787 1 17.6626 23.2657 20.3914 
788 1 16.4367 24.1575 16.0928 
789 1 20.501 25.8333 20.5722 
790 1 18.8939 21.741 16.449 
791 1 20.363 23.0725 17.6699 
792 1 19.0053 24.6892 18.957 
793 1 22.8723 25.7641 17.7035 
794 1 21.8091 21.5683 18.8313 
795 1 22.9819 23.1452 20.2576 
796 1 21.7708 24.3309 16.0685 
797 1 25.7001 25.9845 20.3811 
798 1 24.4814 21.6882 16.0945 
799 1 25.7538 23.0544 17.4956 
800 1 24.4295 24.4759 18.9528 
801 1 1.59191 4.22272 22.8678 
802 1 0.173744 -0.00225741 24.6141 
803 1 1.40075 1.82048 25.9477 
804 1 0.0262655 2.7587 22.0022 
805 1 4.24719 4.09197 25.5971 
806 1 2.86115 -0.0215235 21.9437 
807 1 4.09316 1.51914 23.145 
808 1 2.77007 2.96811 24.4654 
809 1 6.81296 4.08926 23.3183 
810 1 5.41967 0.101367 24.3243 
811 1 6.76552 1.58206 25.8129 
812 1 5.54717 2.71917 21.7976 
813 1 9.36188 4.08742 25.7634 
814 1 8.14694 -0.347616 21.6736 
815 1 9.42642 1.37311 22.8438 
816 1 8.28469 2.62946 24.3784 
817 1 12.328 3.91527 22.8927 
818 1 11.0076 0.114021 24.0809 
819 1 12.003 1.41713 25.6682 
820 1 10.9738 2.64956 21.5086 
821 1 15.2006 4.03578 25.7606 
822 1 13.7446 0.123284 21.3696 
823 1 14.743 1.67402 22.9537 
824 1 13.6278 2.69438 24.525 
825 1 17.6338 3.96241 23.1217 
826 1 16.0798 0.104413 24.2337 
827 1 17.5049 1.18526 25.6618 
828 1 16.2016 2.79614 21.6448 
829 1 20.2896 3.80662 25.7272 
830 1 18.864 -0.113141 21.558 
831 1 20.3834 1.48967 22.8746 
832 1 18.8051 2.58948 24.3404 
833 1 23.254 3.94957 22.9142 
834 1 21.331 0.0420649 24.5019 
835 1 22.9614 1.36582 25.9081 
836 1 21.9484 2.82606 21.4624 
837 1 25.7027 4.35719 25.9533 
838 1 24.2392 -0.00846235 21.7645 
839 1 25.78 1.3334 23.205 
840 1 24.3364 2.87638 24.5743 
841 1 1.44633 9.43996 23.0788 
842 1 -0.0676695 5.57516 24.5421 
843 1 1.37584 6.7102 25.9297 
844 1 -0.0794782 8.25799 21.6903 
845 1 4.06743 9.56481 25.8469 
846 1 2.65491 5.50279 21.4843 
847 1 3.819 6.77033 23.0593 
848 1 2.59227 8.19114 24.5644 
849 1 6.92227 9.42271 22.989 
850 1 5.4717 5.64903 24.4608 
851 1 6.75805 6.88882 25.7242 
852 1 5.36517 7.97592 21.9895 
853 1 9.77075 9.65844 25.8326 
854 1 8.18719 5.19346 21.9313 
855 1 9.4035 6.93213 23.1221 
856 1 8.34418 8.36108 24.6282 
857 1 12.2559 9.49599 23.1666 
858 1 10.824 5.44009 24.2327 
859 1 12.2038 6.56763 25.788 
860 1 10.7793 8.21075 21.8291 
861 1 14.7398 9.1919 25.8106 
862 1 13.7657 5.44458 21.6265 
863 1 14.9614 6.84312 23.2464 
864 1 13.4932 8.05968 24.5996 
865 1 17.6537 9.26848 23.0956 
866 1 16.4936 5.46696 24.3275 
867 1 17.6813 6.53326 25.7827 
868 1 16.2266 8.14563 21.554 
869 1 19.949 9.45351 25.9268 
870 1 18.9136 5.63071 21.7817 
871 1 20.5374 6.63392 23.1162 
872 1 19.025 7.81745 24.5374 
873 1 22.895 9.79309 22.9618 
874 1 21.7809 5.15264 24.3722 
875 1 22.9919 6.95365 25.8475 
876 1 21.6795 8.23338 21.7657 
877 1 25.7897 9.46349 25.5555 
878 1 24.6333 5.23033 21.8111 
879 1 25.4852 6.97619 23.0085 
880 1 24.2746 8.37167 24.1122 
881 1 1.61257 14.8328 23.0636 
882 1 0.122771 10.8959 24.3896 
883 1 1.40237 12.1668 25.9426 
884 1 0.219833 13.6131 21.7377 
885 1 3.83937 14.9537 26.0131 
886 1 2.6522 10.7761 21.6416 
887 1 4.07999 12.3378 22.9567 
888 1 2.8154 13.3923 24.5422 
889 1 7.02885 14.7984 23.1702 
890 1 5.47598 10.8615 24.2903 
891 1 6.79819 12.3605 25.7982 
892 1 5.27561 13.7178 21.6643 
893 1 9.81285 15.0273 25.851 
894 1 8.21578 11.0419 21.7296 
895 1 9.85816 12.2963 23.0553 
896 1 8.44891 13.6884 24.5707 
897 1 12.1085 15.1045 22.8007 
898 1 10.9897 10.7819 24.4435 
899 1 12.3493 12.3779 25.4488 
900 1 11.0325 13.3684 21.3796 
901 1 14.8985 15.1789 25.7955 
902 1 13.638 10.8601 21.9407 
903 1 14.8538 12.4189 23.1695 
904 1 13.5564 13.9688 24.5444 
905 1 17.797 14.739 22.9023 
906 1 15.8666 10.6789 24.2784 
907 1 17.4207 12.2364 25.6762 
908 1 16.1575 13.4745 21.6671 
909 1 20.3608 14.9891 25.9813 
910 1 18.8809 10.6115 21.9293 
911 1 20.4102 12.2024 23.1631 
912 1 19.201 13.5562 24.4336 
913 1 23.2522 14.9068 23.0945 
914 1 21.5664 10.7299 24.5397 
915 1 23.0184 12.2753 25.6929 
916 1 21.6651 13.5693 21.9228 
917 1 25.9158 14.9307 25.5805 
918 1 24.4902 11.1105 21.7551 
919 1 25.8695 12.2214 22.9856 
920 1 24.4894 13.5184 24.3822 
921 1 1.50943 20.5407 23.1948 
922 1 0.416284 16.2621 24.4744 
923 1 1.44021 17.7147 26.0519 
924 1 0.0817862 19.3702 22.0234 
925 1 4.08976 20.2467 25.9404 
926 1 2.61575 16.2549 21.4981 
927 1 4.10039 17.5649 22.8074 
928 1 2.74755 18.8344 24.4773 
929 1 6.7178 20.5534 23.32 
930 1 5.52191 16.201 24.4471 
931 1 6.92377 17.6613 25.684 
932 1 5.38971 19.1099 21.8006 
933 1 9.66279 20.5435 25.9665 
934 1 8.1993 16.2826 21.3839 
935 1 9.39061 17.7088 22.9413 
936 1 8.44911 19.2535 24.3271 
937 1 12.064 20.3549 22.96 
938 1 10.8006 16.5367 24.196 
939 1 12.0638 17.7053 25.7654 
940 1 10.7548 19.2485 21.5102 
941 1 15.1984 20.2796 25.8932 
942 1 13.4539 16.4758 21.5729 
943 1 15.0453 17.4313 23.0156 
944 1 13.5909 18.8941 24.4214 
945 1 17.7201 20.5735 22.9479 
946 1 16.4176 16.1626 24.3509 
947 1 17.7527 17.481 25.8053 
948 1 16.2739 18.9524 21.8936 
949 1 20.5521 20.4342 26.0671 
950 1 19.1976 16.3593 21.6472 
951 1 20.5809 17.8779 23.2055 
952 1 18.9735 19.251 24.6374 
953 1 23.0825 20.6497 22.9419 
954 1 21.8775 16.1755 24.4889 
955 1 23.2831 17.7394 25.8239 
956 1 21.9714 19.1151 21.7456 
957 1 25.8899 20.6317 26.0704 
958 1 24.493 16.4208 21.8907 
959 1 26.1016 17.6744 23.3073 
960 1 24.7211 19.1292 24.6286 
961 1 1.30426 25.9308 23.1016 
962 1 0.0155215 21.7732 24.4719 
963 1 1.11405 23.1927 25.7455 
964 1 -0.102859 24.5787 21.8301 