si_alpha_1000atoms_sw_relax.lmpdata (written by ASE) 

1000 	 atoms 
1  atom types
0.0      27.154748892026326  xlo xhi
0.0      27.154748892026323  ylo yhi
0.0      27.154748892026369  zlo zhi


Atoms 

     1   1      1.3577227578991513      4.0731978165187597      1.3577225737499836
     2   1      27.154734053711227       27.15473395781693      2.7154601498574507
     3   1       1.357722762434673      1.3577226705941363      4.0731976989314704
     4   1        27.1547340565076      2.7154602677514257      27.154733849400493
     5   1      4.0731978747095781      4.0731978004738165      4.0731977036295905
     6   1      2.7154603666611532      27.154733967294337      27.154733849400525
     7   1      4.0731979053839629      1.3577226866388772       1.357722569051661
     8   1      2.7154603444719161      2.7154602582737675       2.715460149857305
     9   1       6.788672830217461      4.0731978165185687      1.3577225737498484
    10   1      5.4309353978977244      27.154733957816784      2.7154601498573085
    11   1      6.7886728347530818      1.3577226705940229      4.0731976989313319
    12   1      5.4309354006939348      2.7154602677513813      27.154733849400348
    13   1      9.5041475518170184      4.0731978004735909      4.0731977036292086
    14   1      8.1464102463451695      27.154733967294295      27.154733849400351
    15   1       9.504147582491262      1.3577226866386136      1.3577225690514441
    16   1      8.1464102241561651      2.7154602582735641      2.7154601498570541
    17   1      12.219622150815683      4.0731978165182552      1.3577225737494365
    18   1       10.86188488237786      27.154733957816813      2.7154601498570909
    19   1      12.219622155351351      1.3577226705939767      4.0731976989310121
    20   1      10.861884885173897      2.7154602677510353      27.154733849400099
    21   1      14.935096690772744      4.0731978004736273      4.0731977036290523
    22   1      13.577359447896832      27.154733967294511       27.15473384940011
    23   1      14.935096721447085      1.3577226866388215      1.3577225690512333
    24   1      13.577359425707691      2.7154602582735512      2.7154601498567885
    25   1      17.650571352367329      4.0731978165187366       1.357722573749476
    26   1      16.292834021333597      27.154733957817072      2.7154601498570208
    27   1      17.650571356902848      1.3577226705942418      4.0731976989311258
    28   1      16.292834024129856      2.7154602677514377      27.154733849400078
    29   1      20.366046175252698      4.0731978004740563      4.0731977036294627
    30   1      19.008308768495041      27.154733967294632      27.154733849400206
    31   1      20.366046205926938      1.3577226866391274      1.3577225690515025
    32   1      19.008308746305907      2.7154602582740925      2.7154601498570781
    33   1      23.081521232051312      4.0731978165190004      1.3577225737498859
    34   1      21.723783698440741      27.154733957817186      2.7154601498572872
    35   1      23.081521236586759      1.3577226705944097      4.0731976989314793
    36   1      21.723783701237029      2.7154602677517263      27.154733849400287
    37   1      25.796996411465262       4.073197800474035      4.0731977036296589
    38   1      24.439258840813284      27.154733967294511      27.154733849400447
    39   1      25.796996442139573      1.3577226866390444      1.3577225690517842
    40   1      24.439258818624008      2.7154602582740774      2.7154601498572681
    41   1      1.3577227069799367      9.5041474936261885      1.3577225723082627
    42   1      27.154734019901035      5.4309353020031867      2.7154601498572446
    43   1       1.357722718224134      6.7886727429123486      4.0731977045921504
    44   1      27.154734005121405      8.1464101474355868      27.154733849400422
    45   1      4.0731978237902835       9.504147477581192      4.0731977021877555
    46   1      2.7154603328508493        5.43093531148069      27.154733849400429
    47   1      4.0731978611733215      6.7886727589572713      1.3577225747124912
    48   1      2.7154602930854459      8.1464101379580516      2.7154601498570741
    49   1      6.7886727792981132      9.5041474936261103      1.3577225723080899
    50   1       5.430935364087321      5.4309353020030207      2.7154601498570248
    51   1      6.7886727905423632      6.7886727429121745      4.0731977045919789
    52   1      5.4309353493074033      8.1464101474356259      27.154733849400223
    53   1      9.5041475008976892      9.5041474775810144      4.0731977021874322
    54   1      8.1464102125348443      5.4309353114805088      27.154733849400206
    55   1      9.5041475382806873      6.7886727589570439       1.357722574712187
    56   1      8.1464101727695954      8.1464101379577869      2.7154601498567352
    57   1      12.219622099896727      9.5041474936260215      1.3577225723079065
    58   1      10.861884848567568      5.4309353020027844        2.71546014985665
    59   1      12.219622111140858      6.7886727429120119      4.0731977045916565
    60   1      10.861884833787695       8.146410147435537      27.154733849400078
    61   1      14.935096639853763      9.5041474775811583      4.0731977021873984
    62   1      13.577359414086496      5.4309353114803258      27.154733849400095
    63   1      14.935096677236496      6.7886727589568983      1.3577225747121271
    64   1      13.577359374321428      8.1464101379577976      2.7154601498566526
    65   1       17.65057130144843      9.5041474936260499      1.3577225723079762
    66   1      16.292833987523352       5.430935302002954      2.7154601498568169
    67   1      17.650571312692477      6.7886727429122917      4.0731977045917915
    68   1      16.292833972743644      8.1464101474354553      27.154733849400213
    69   1      20.366046124334034      9.5041474775813786      4.0731977021877048
    70   1      19.008308734684981      5.4309353114809671      27.154733849400234
    71   1      20.366046161716653      6.7886727589574063      1.3577225747124082
    72   1      19.008308694919808      8.1464101379581884      2.7154601498570061
    73   1      23.081521181132544      9.5041474936262027      1.3577225723082416
    74   1      21.723783664630666       5.430935302003391      2.7154601498571962
    75   1       23.08152119237657      6.7886727429125688      4.0731977045921823
    76   1       21.72378364985104      8.1464101474357786      27.154733849400351
    77   1      25.796996360546441      9.5041474775813111       4.073197702187846
    78   1      24.439258807003228      5.4309353114808943      27.154733849400372
    79   1       25.79699639792921      6.7886727589572819      1.3577225747125439
    80   1      24.439258767238012      8.1464101379581795      2.7154601498571624
    81   1       1.357722693085454      14.935096632582075      1.3577225635693955
    82   1      27.154733972585174      10.861884786483394      2.7154601498571243
    83   1      1.3577226800160742      12.219622063510778      4.0731976980390341
    84   1      27.154733977893105      13.577359348987486      27.154733849400529
    85   1      4.0731978098957704      14.935096616537193      4.0731976934487886
    86   1       2.715460285534653      10.861884795960959       27.15473384940038
    87   1      4.0731978229650974      12.219622079555636       1.357722568159434
    88   1      2.7154602658573079      13.577359339509725      2.7154601498570834
    89   1      6.7886727654038674      14.935096632582114      1.3577225635691677
    90   1      5.4309353167712411      10.861884786483282      2.7154601498569293
    91   1      6.7886727523343149      12.219622063510773      4.0731976980387747
    92   1      5.4309353220793497       13.57735934898731      27.154733849400472
    93   1      9.5041474870033369      14.935096616537509      4.0731976934485772
    94   1      8.1464101652188425      10.861884795960909      27.154733849400273
    95   1      9.5041475000726674      12.219622079555668      1.3577225681592151
    96   1      8.1464101455416991      13.577359339509801      2.7154601498568987
    97   1      12.219622086002394      14.935096632582422      1.3577225635692087
    98   1      10.861884801251593       10.86188478648322      2.7154601498567441
    99   1      12.219622072932856      12.219622063510812      4.0731976980385962
   100   1      10.861884806559772       13.57735934898748      27.154733849400404
   101   1      14.935096625959481      14.935096616537573      4.0731976934486953
   102   1      13.577359366770891      10.861884795960886      27.154733849400188
   103   1      14.935096639028714      12.219622079555764      1.3577225681591949
   104   1      13.577359347093513      13.577359339510002       2.715460149856828
   105   1       17.65057128755414      14.935096632582297      1.3577225635693975
   106   1      16.292833940207668      10.861884786483408      2.7154601498567557
   107   1      17.650571274484758      12.219622063510903      4.0731976980387783
   108   1      16.292833945515838      13.577359348987551      27.154733849400358
   109   1      20.366046110439719      14.935096616537379      4.0731976934490799
   110   1      19.008308687369361      10.861884795961021      27.154733849400372
   111   1      20.366046123508998      12.219622079555778      1.3577225681594538
   112   1      19.008308667692091      13.577359339509995      2.7154601498570829
   113   1      23.081521167238161      14.935096632582132      1.3577225635695638
   114   1      21.723783617315128      10.861884786483531      2.7154601498571154
   115   1      23.081521154168914      12.219622063510867      4.0731976980391105
   116   1      21.723783622623024      13.577359348987597      27.154733849400504
   117   1      25.796996346652019      14.935096616537223      4.0731976934490932
   118   1      24.439258759687419      10.861884795961059      27.154733849400472
   119   1      25.796996359721291      12.219622079555718      1.3577225681595555
   120   1      24.439258740010114      13.577359339509879       2.715460149857245
   121   1       1.357722731293433      20.366046117061998      1.3577225570166693
   122   1      27.154733972585241       16.29283392543925      2.7154601498573361
   123   1       1.357722693910566      17.650571265062482      4.0731976893003887
   124   1       27.15473400512127      19.008308669585524      27.154733849400632
   125   1      4.0731978481038995      20.366046101017353      4.0731976868961679
   126   1      2.7154602855348213      16.292833934916757      27.154733849400515
   127   1      4.0731978368597366      17.650571281107215       1.357722559420697
   128   1      2.7154602930855991      19.008308660108025      2.7154601498574213
   129   1      6.7886728036119539      20.366046117062268      1.3577225570164002
   130   1      5.4309353167715253      16.292833925439236      2.7154601498570852
   131   1      6.7886727662289443      17.650571265062673      4.0731976893000708
   132   1      5.4309353493075934      19.008308669585656      27.154733849400571
   133   1      9.5041475252115415      20.366046101017808      4.0731976868959991
   134   1      8.1464101652192404      16.292833934917045      27.154733849400436
   135   1      9.5041475139674443      17.650571281107784       1.357722559420417
   136   1      8.1464101727700111      19.008308660108405       2.715460149857166
   137   1      12.219622124210582      20.366046117062815      1.3577225570163425
   138   1      10.861884801251875      16.292833925439759      2.7154601498569857
   139   1      12.219622086827602      17.650571265063103       4.073197689300045
   140   1      10.861884833788118      19.008308669586324      27.154733849400426
   141   1      14.935096664167482      20.366046101018011      4.0731976868961137
   142   1      13.577359366771063      16.292833934917308      27.154733849400383
   143   1      14.935096652923423      17.650571281107837      1.3577225594205224
   144   1      13.577359374321816      19.008308660108771        2.71546014985711
   145   1      17.650571325762101      20.366046117062478      1.3577225570164986
   146   1      16.292833940207874      16.292833925439741      2.7154601498570425
   147   1      17.650571288379261      17.650571265062887      4.0731976893003878
   148   1      16.292833972743967      19.008308669586189      27.154733849400333
   149   1      20.366046148647548      20.366046101017545      4.0731976868964415
   150   1      19.008308687369269      16.292833934917073      27.154733849400412
   151   1      20.366046137403366      17.650571281107389      1.3577225594207822
   152   1      19.008308694920061      19.008308660108455      2.7154601498573432
   153   1       23.08152120544587      20.366046117062176      1.3577225570167315
   154   1      21.723783617315139      16.292833925439442      2.7154601498573481
   155   1      23.081521168063333      17.650571265062553      4.0731976893006117
   156   1      21.723783649850876      19.008308669585844      27.154733849400539
   157   1      25.796996384859856        20.3660461010174      4.0731976868965285
   158   1      24.439258759687267      16.292833934916938      27.154733849400607
   159   1      25.796996373615702      17.650571281107329      1.3577225594208593
   160   1      24.439258767238069      19.008308660108138       2.715460149857587
   161   1      1.3577227755040679      25.796996353274597      1.3577225626775959
   162   1      27.154734019901092      21.723783602546515      2.7154601498576483
   163   1      1.3577227448296867      23.081521144746606       4.073197687859075
   164   1      27.154734056507664        24.4392587419037      27.154733849400614
   165   1      4.0731978923145489      25.796996337229796      4.0731976925571791
   166   1      2.7154603328507436      21.723783612023876      27.154733849400632
   167   1      4.0731978877788944      23.081521160791183      1.3577225579792449
   168   1      2.7154603444719441      24.439258732426214      2.7154601498575452
   169   1      6.7886728478224079      25.796996353274466       1.357722562677351
   170   1      5.4309353640875004      21.723783602546543      2.7154601498574236
   171   1      6.7886728171481572      23.081521144746702      4.0731976878588396
   172   1      5.4309354006939561      24.439258741903664      27.154733849400593
   173   1      9.5041475694219244      25.796996337229928      4.0731976925569873
   174   1      8.1464102125351925      21.723783612024459      27.154733849400539
   175   1      9.5041475648866065      23.081521160791709      1.3577225579790506
   176   1      8.1464102241562468      24.439258732426396      2.7154601498573077
   177   1      12.219622168420933      25.796996353274778      1.3577225626772187
   178   1      10.861884848567856      21.723783602547091      2.7154601498572353
   179   1      12.219622137746665      23.081521144747107      4.0731976878587171
   180   1      10.861884885174314      24.439258741904144      27.154733849400365
   181   1      14.935096708377827      25.796996337230102      4.0731976925569597
   182   1      13.577359414087015      21.723783612024739      27.154733849400309
   183   1      14.935096703842424      23.081521160791848      1.3577225579789887
   184   1      13.577359425707975      24.439258732426698      2.7154601498571571
   185   1      17.650571369972312      25.796996353274828      1.3577225626772602
   186   1      16.292833987523707       21.72378360254713      2.7154601498572388
   187   1      17.650571339298253      23.081521144746954      4.0731976878589391
   188   1      16.292834024130023      24.439258741904183      27.154733849400198
   189   1      20.366046192857741      25.796996337230084      4.0731976925571951
   190   1      19.008308734685073      21.723783612024462      27.154733849400362
   191   1      20.366046188322283      23.081521160791542      1.3577225579792007
   192   1      19.008308746306103      24.439258732426659      2.7154601498573157
   193   1      23.081521249656308      25.796996353274739       1.357722562677506
   194   1      21.723783664630762      21.723783602546796       2.715460149857567
   195   1      23.081521218982125      23.081521144746738      4.0731976878591745
   196   1      21.723783701237171      24.439258741903984      27.154733849400426
   197   1      25.796996429070198      25.796996337229992      4.0731976925573505
   198   1      24.439258807003082      21.723783612024008      27.154733849400657
   199   1      25.796996424534736      23.081521160791329      1.3577225579793348
   200   1      24.439258818624221      24.439258732426413      2.7154601498575617
   201   1      1.3577227171188595      4.0731977703224143      6.7886726460680151
   202   1      27.154733996782181      27.154733898458471      8.1464100295413377
   203   1      1.3577227054547389      1.3577226094347552      9.5041473760387216
   204   1      27.154734017092562      2.7154602306118423      5.4309351935864552
   205   1      4.0731978177294446      4.0731977393141507      9.5041473807369155
   206   1      2.7154603272461459      27.154733930154823      5.4309351935865537
   207   1      4.0731978646036335      1.3577226404427019      6.7886726413698684
   208   1      2.7154602875425589      2.7154601989150899      8.1464100295412223
   209   1      6.7886727894372179      4.0731977703222464      6.7886726460679672
   210   1       5.430935340968337       27.15473389845825      8.1464100295414621
   211   1       6.788672777772998      1.3577226094345556      9.5041473760387429
   212   1      5.4309353612789746      2.7154602306116007      5.4309351935864107
   213   1      9.5041474948369249      4.0731977393140308       9.504147380736887
   214   1      8.1464102069303355      27.154733930154705      5.4309351935864836
   215   1      9.5041475417110597      1.3577226404425891      6.7886726413696694
   216   1      8.1464101672268061      2.7154601989148701      8.1464100295412365
   217   1      12.219622110035614      4.0731977703220688       6.788672646067706
   218   1      10.861884825448566      27.154733898458289      8.1464100295413431
   219   1      12.219622098371463      1.3577226094345987      9.5041473760386719
   220   1      10.861884845759093       2.715460230611439      5.4309351935861114
   221   1      14.935096633793044      4.0731977393141054      9.5041473807368639
   222   1      13.577359408481991      27.154733930154944      5.4309351935863246
   223   1      14.935096680666938       1.357722640442715      6.7886726413696108
   224   1      13.577359368778561        2.71546019891501      8.1464100295411654
   225   1      17.650571311587285      4.0731977703224231      6.7886726460678943
   226   1      16.292833964404636      27.154733898458637      8.1464100295413662
   227   1      17.650571299923399      1.3577226094348354      9.5041473760388158
   228   1      16.292833984714935      2.7154602306117814      5.4309351935861949
   229   1      20.366046118273388       4.073197739314522      9.5041473807369794
   230   1      19.008308729080291      27.154733930155235      5.4309351935865156
   231   1      20.366046165147008       1.357722640442993      6.7886726413698906
   232   1      19.008308689377063      2.7154601989154048      8.1464100295413946
   233   1        23.0815211912713      4.0731977703226923      6.7886726460681359
   234   1       21.72378364151194      27.154733898458712      8.1464100295415705
   235   1      23.081521179607449      1.3577226094349555      9.5041473760388229
   236   1      21.723783661822168      2.7154602306121003      5.4309351935865173
   237   1      25.796996354485664      4.0731977393144616      9.5041473807369155
   238   1      24.439258801398349      27.154733930155142      5.4309351935866577
   239   1      25.796996401359447      1.3577226404429128       6.788672641369871
   240   1      24.439258761695125      2.7154601989154172      8.1464100295413324
   241   1      1.3577226661997894      9.5041474474297694      6.7886726446261925
   242   1       27.15473396297191      5.4309352426443862      8.1464100295411708
   243   1      1.3577226612442364       6.788672681752729      9.5041473816994966
   244   1      27.154733965706363      8.1464101102958608      5.4309351935862518
   245   1      4.0731977668102335      9.5041474164216098      9.5041473792950963
   246   1      2.7154602934357954      5.4309352743408947       5.430935193586258
   247   1      4.0731978203929904       6.788672712760774      6.7886726470305767
   248   1      2.7154602361561651      8.1464100785991391      8.1464100295410464
   249   1      6.7886727385178789      9.5041474474296521      6.7886726446261081
   250   1      5.4309353071579274      5.4309352426440807      8.1464100295411566
   251   1      6.7886727335622705      6.7886726817525185      9.5041473816994948
   252   1      5.4309353098924316      8.1464101102956992      5.4309351935860795
   253   1      9.5041474439177129      9.5041474164214854      9.5041473792950946
   254   1      8.1464101731200085      5.4309352743406007       5.430935193586083
   255   1      9.5041474975004423      6.7886727127605466      6.7886726470303405
   256   1      8.1464101158402844      8.1464100785989029      8.1464100295409452
   257   1      12.219622059116517      9.5041474474296326      6.7886726446259074
   258   1      10.861884791638275      5.4309352426439332      8.1464100295410216
   259   1      12.219622054161011      6.7886726817524154      9.5041473816994202
   260   1       10.86188479437277      8.1464101102955464       5.430935193585861
   261   1      14.935096582874156      9.5041474164216151      9.5041473792950839
   262   1      13.577359374671696      5.4309352743406407      5.4309351935859365
   263   1      14.935096636456469      6.7886727127606061      6.7886726470301921
   264   1      13.577359317392382      8.1464100785989704      8.1464100295409096
   265   1      17.650571260668446      9.5041474474298511      6.7886726446260495
   266   1      16.292833930594384      5.4309352426442636      8.1464100295411175
   267   1      17.650571255712997      6.7886726817527707       9.504147381699406
   268   1      16.292833933328783      8.1464101102958129      5.4309351935859587
   269   1      20.366046067354688      9.5041474164218958      9.5041473792952367
   270   1      19.008308695270017      5.4309352743411967       5.430935193586321
   271   1       20.36604612093673      6.7886727127610884       6.788672647030527
   272   1      19.008308637990986      8.1464100785994695      8.1464100295411317
   273   1      23.081521140352667      9.5041474474299097      6.7886726446262671
   274   1      21.723783607701801      5.4309352426447148      8.1464100295413235
   275   1      23.081521135397157      6.7886726817529528       9.504147381699541
   276   1      21.723783610436168      8.1464101102962019      5.4309351935862926
   277   1      25.796996303566903      9.5041474164217288      9.5041473792951709
   278   1      24.439258767588196      5.4309352743412074      5.4309351935864099
   279   1       25.79699635714913      6.7886727127609525      6.7886726470306309
   280   1      24.439258710309126      8.1464100785994127      8.1464100295412099
   281   1      1.3577226523053196      14.935096586385846      6.7886726358874041
   282   1       27.15473391565618      10.861884727124611      8.1464100295410358
   283   1      1.3577226230362247      12.219622002351331      9.5041473751463599
   284   1      27.154733938478461       13.57735931184766       5.430935193586321
   285   1      4.0731977529157897      14.935096555377834      9.5041473705562023
   286   1      2.7154602461198123      10.861884758821148      5.4309351935861425
   287   1      4.0731977821848862      12.219622033359322       6.788672640477273
   288   1      2.7154602089282092      13.577359280151025      8.1464100295410251
   289   1      6.7886727246233658      14.935096586386003      6.7886726358870835
   290   1      5.4309352598419673      10.861884727124471      8.1464100295409061
   291   1      6.7886726953541787      12.219622002351313      9.5041473751462409
   292   1      5.4309352826644037      13.577359311847589      5.4309351935860457
   293   1      9.5041474300232682      14.935096555378115      9.5041473705561295
   294   1       8.146410125803957      10.861884758821024      5.4309351935859036
   295   1      9.5041474592923727       12.21962203335938      6.7886726404771123
   296   1      8.1464100886122459      13.577359280151157       8.146410029540867
   297   1      12.219622045222092      14.935096586386148      6.7886726358870622
   298   1       10.86188474432236      10.861884727124501      8.1464100295408262
   299   1      12.219622015952995      12.219622002351386      9.5041473751462622
   300   1      10.861884767144755      13.577359311847784      5.4309351935858858
   301   1      14.935096568979793      14.935096555378149      9.5041473705562698
   302   1      13.577359327355921       10.86188475882115      5.4309351935858352
   303   1      14.935096598248656      12.219622033359478      6.7886726404771407
   304   1      13.577359290164447      13.577359280151317      8.1464100295409381
   305   1      17.650571246774238      14.935096586386042      6.7886726358873792
   306   1      16.292833883278732      10.861884727124712       8.146410029540986
   307   1      17.650571217505412      12.219622002351427      9.5041473751463883
   308   1      16.292833906100999      13.577359311847946      5.4309351935860368
   309   1      20.366046053460433      14.935096555377998      9.5041473705564528
   310   1      19.008308647954529      10.861884758821445      5.4309351935861621
   311   1      20.366046082729149      12.219622033359457      6.7886726404774489
   312   1      19.008308610763333      13.577359280151351      8.1464100295411477
   313   1      23.081521126458327       14.93509658638588      6.7886726358875737
   314   1      21.723783560386401      10.861884727124814       8.146410029541201
   315   1      23.081521097189583      12.219622002351402      9.5041473751464984
   316   1      21.723783583208494      13.577359311847847      5.4309351935863326
   317   1      25.796996289672474      14.935096555377932      9.5041473705564545
   318   1      24.439258720272701      10.861884758821306      5.4309351935862678
   319   1      25.796996318941321      12.219622033359409        6.78867264047748
   320   1      24.439258683081373      13.577359280151221      8.1464100295412081
   321   1      1.3577226905133681       20.36604607086613      6.7886726293347897
   322   1       27.15473391565634       16.29283386608077      8.1464100295413289
   323   1      1.3577226369308595       17.65057120390329      9.5041473664077003
   324   1      27.154733965706594      19.008308632446113      5.4309351935867305
   325   1      4.0731977911239765      20.366046039858254      9.5041473640035452
   326   1      2.7154602461199424      16.292833897777097      5.4309351935863326
   327   1      4.0731977960794312      17.650571234911251      6.7886726317386197
   328   1      2.7154602361565008      19.008308600749629      8.1464100295414354
   329   1      6.7886727628315313      20.366046070866325      6.7886726293344806
   330   1      5.4309352598421201      16.292833866080755       8.146410029541137
   331   1      6.7886727092487646      17.650571203903489      9.5041473664075102
   332   1      5.4309353098927531      19.008308632446077      5.4309351935864472
   333   1      9.5041474682314142      20.366046039858666      9.5041473640033924
   334   1      8.1464101258041755      16.292833897777417      5.4309351935861461
   335   1      9.5041474731869933      17.650571234911709        6.78867263173849
   336   1      8.1464101158405793      19.008308600749988      8.1464100295412933
   337   1      12.219622083430266      20.366046070866759      6.7886726293344966
   338   1      10.861884744322593      16.292833866081107      8.1464100295410571
   339   1       12.21962202984764      17.650571203903791      9.5041473664075671
   340   1      10.861884794373161      19.008308632446699      5.4309351935863859
   341   1      14.935096607187853      20.366046039858823      9.5041473640035967
   342   1      13.577359327356126      16.292833897777712      5.4309351935861114
   343   1      14.935096612143246      17.650571234911698      6.7886726317386392
   344   1      13.577359317392654       19.00830860075034      8.1464100295413253
   345   1      17.650571284982082      20.366046070866545      6.7886726293347719
   346   1      16.292833883278956      16.292833866081153      8.1464100295411939
   347   1      17.650571231399795      17.650571203903581      9.5041473664077927
   348   1      16.292833933329121      19.008308632446766      5.4309351935864436
   349   1      20.366046091668071      20.366046039858539      9.5041473640037957
   350   1      19.008308647954735      16.292833897777591      5.4309351935864534
   351   1      20.366046096623528      17.650571234911428       6.788672631739022
   352   1      19.008308637991266      19.008308600750166      8.1464100295415331
   353   1        23.0815211646661      20.366046070866293      6.7886726293350197
   354   1      21.723783560386519      16.292833866080951       8.146410029541439
   355   1      23.081521111083934      17.650571203903468      9.5041473664078655
   356   1      21.723783610436477      19.008308632446393      5.4309351935868113
   357   1      25.796996327880404       20.36604603985834      9.5041473640036962
   358   1      24.439258720272786      16.292833897777296      5.4309351935865875